% Model:              Comsol_Graphen-SPR(1).mph
% Version:            COMSOL 6.3.0.420
% Date:               Sep 4 2025, 16:08
% Dimension:          1
% Nodes:              401
% Expressions:        1
% Description:        Global
% Incident angle parameter (deg) Total reflectance
50                               0.8987718334350094
50.1                             0.8987460384583602
50.2                             0.8987208504039339
50.300000000000004               0.8986962774370795
50.4                             0.8986723278574306
50.5                             0.8986490101064109
50.6                             0.8986263327744519
50.7                             0.8986043046084733
50.8                             0.8985829345192351
50.9                             0.8985622315887691
51                               0.8985422050773174
51.1                             0.8985228644307122
51.2                             0.8985042192870041
51.3                             0.8984862794832705
51.400000000000006               0.898469055061901
51.5                             0.8984525562767574
51.6                             0.8984367935987527
51.7                             0.8984217777211646
51.8                             0.8984075195644736
51.9                             0.8983940302806293
52                               0.8983813212567893
52.1                             0.8983694041183199
52.2                             0.8983582907313479
52.3                             0.8983479932043263
52.4                             0.8983385238888724
52.50000000000001                0.8983298953798281
52.6                             0.8983221205140823
52.7                             0.8983152123681769
52.8                             0.8983091842549032
52.9                             0.8983040497173067
53                               0.898299822520555
53.1                             0.8982965166385098
53.2                             0.8982941462310946
53.3                             0.8982927255970939
53.4                             0.8982922690545329
53.5                             0.8982927905855455
53.6                             0.8982943033289109
53.7                             0.8982968263680029
53.8                             0.8983003814918844
53.9                             0.8983049714464261
54                               0.8983106013842456
54.1                             0.8983173103049582
54.20000000000001                0.8983251525777372
54.3                             0.8983340866605826
54.4                             0.898344136331368
54.5                             0.8983553208669012
54.6                             0.8983676576247281
54.7                             0.8983811634850443
54.800000000000004               0.8983958551215337
54.9                             0.8984117491036725
55                               0.8984288619033937
55.1                             0.898447209884659
55.2                             0.8984668093214575
55.3                             0.8984876763929662
55.4                             0.8985098271222939
55.5                             0.8985332771739278
55.6                             0.8985580403856808
55.7                             0.8985841141501736
55.8                             0.898611580822814
55.900000000000006               0.8986403864963592
56                               0.8986705633745711
56.1                             0.8987021246227791
56.2                             0.8987350812622285
56.3                             0.8987694540248812
56.4                             0.8988052962393088
56.5                             0.8988426508156844
56.6                             0.8988814889529688
56.7                             0.8989217942035055
56.8                             0.898963581345957
56.9                             0.8990068702365455
57.00000000000001                0.8990516786401803
57.1                             0.8990980223958392
57.2                             0.8991459161935096
57.3                             0.8991953740546851
57.400000000000006               0.8992464095859121
57.5                             0.8992990361125894
57.6                             0.8993532667516471
57.699999999999996               0.8994091144527789
57.79999999999999                0.8994665920205241
57.9                             0.8995257121237948
58.00000000000001                0.8995864872936999
58.1                             0.899648929907784
58.2                             0.8997130521547562
58.3                             0.8997788659668977
58.400000000000006               0.8998463828986046
58.5                             0.8999156139476194
58.60000000000001                0.8999865696057741
58.7                             0.9000592617802071
58.8                             0.90013370743505
58.9                             0.9002099192872639
59.00000000000001                0.9002879000617175
59.1                             0.9003676546188466
59.20000000000001                0.9004491899007595
59.300000000000004               0.9005325117754548
59.39999999999999                0.900617624010452
59.5                             0.9007045278375567
59.60000000000001                0.9007932214886347
59.7                             0.9008836996005003
59.8                             0.9009759524682815
59.9                             0.901069965131079
59.99999999999999                0.9011657162609805
60.1                             0.9012631768178747
60.20000000000001                0.9013623084181073
60.300000000000004               0.9014630613502129
60.4                             0.9015653721425574
60.5                             0.9016691605533477
60.599999999999994               0.9017743258310801
60.7                             0.901880742065828
60.8                             0.9019882523427668
60.900000000000006               0.9020966612556143
61                               0.9022057251931423
61.1                             0.9023151395744039
61.20000000000001                0.9024245218034115
61.300000000000004               0.9025333880073675
61.4                             0.9026411202996192
61.50000000000001                0.9027469195296003
61.599999999999994               0.9028497356554993
61.7                             0.9029481603771955
61.8                             0.9030402528009601
61.900000000000006               0.9031232406818603
62                               0.9031929632791328
62.1                             0.903242708024468
62.199999999999996               0.903260431167005
62.29999999999999                0.9032201422831526
62.4                             0.9030369143339698
62.50000000000001                0.905921337958345
62.6                             0.9063594457299544
62.7                             0.9067691244975031
62.8                             0.9071514836046468
62.900000000000006               0.9075073544876082
63                               0.907837324231444
63.10000000000001                0.9081417623089534
63.2                             0.9084208418367222
63.3                             0.9086745563732128
63.4                             0.9089027330372188
63.50000000000001                0.9091050425540647
63.6                             0.909281007244159
63.70000000000001                0.909430007996952
63.800000000000004               0.9095512832120355
63.89999999999999                0.9096439330339264
64                               0.9097069215593183
64.1                             0.9097390744479835
64.2                             0.9097390767316668
64.3                             0.9097054695892823
64.4                             0.9096366459886411
64.5                             0.9095308452509857
64.6                             0.909386146563286
64.7                             0.9092004614428436
64.8                             0.9089715251437038
64.9                             0.9086968869799048
65                               0.9083738995319038
65.1                             0.9079997066886207
65.2                             0.9075712304711827
65.3                             0.9070851565714736
65.4                             0.9065379185324709
65.5                             0.9059256804848527
65.6                             0.9052443183486285
65.7                             0.9044893993969567
65.8                             0.9036561600717895
65.9                             0.902739481933255
66                               0.901733865614024
66.1                             0.9006334026447373
66.2                             0.8994317450089094
66.3                             0.8981220722780369
66.4                             0.8966970561776646
66.5                             0.8951488224264826
66.6                             0.8934689096976465
66.7                             0.8916482255494874
66.8                             0.889676999185893
66.9                             0.8875447309166502
67                               0.8852401382137389
67.1                             0.882751098287737
67.2                             0.8800645871529785
67.3                             0.8771666152083217
67.4                             0.87404215943493
67.5                             0.8706750924131953
67.6                             0.8670481084867561
67.7                             0.8631426475611719
67.8                             0.8589388172281951
67.90000000000002                0.854415314155776
68                               0.8495493459945669
68.1                             0.8443165554309352
68.2                             0.8386909484779029
68.3                             0.8326448296439889
68.4                             0.8261487472729567
68.5                             0.8191714530876318
68.6                             0.8116798808611889
68.7                             0.8036391511288336
68.8                             0.7950126192791807
68.9                             0.7857619864659514
69                               0.775847355051135
69.1                             0.7652274158485445
69.2                             0.7538598218747373
69.3                             0.7417015263287834
69.4                             0.7287092567724004
69.5                             0.7148401377567634
69.6                             0.7000524683589009
69.7                             0.6843066757149697
69.8                             0.667566466037716
69.9                             0.6498001921600643
70                               0.630982452075502
70.1                             0.6110959255626476
70.2                             0.5901334450291384
70.3                             0.5681002815140668
70.4                             0.5450166068299572
70.5                             0.520920067937263
70.6                             0.4958683801932169
70.7                             0.46994181328634776
70.8                             0.4432454097335141
70.9                             0.4159107443768891
71                               0.388097008865216
71.1                             0.3599911875273047
71.2                             0.3318070806963959
71.3                             0.30378302394205137
71.4                             0.2761782189385041
71.5                             0.24926751637892358
71.6                             0.22333477655629236
71.7                             0.19866505689875752
71.8                             0.17553595708640451
71.9                             0.1542085917463652
72                               0.13491872898075777
72.1                             0.11786869414256965
72.2                             0.10322062650222974
72.3                             0.09109150458801253
72.40000000000002                0.08155027877388972
72.5                             0.0746172498585427
72.6                             0.07026563608178941
72.7                             0.06842509859956754
72.8                             0.06898685776249731
72.9                             0.07180994531667752
73                               0.07672810564280391
73.1                             0.08355687813714217
73.2                             0.092100452072035
73.3                             0.1021579705656122
73.4                             0.11352905700428825
73.5                             0.12601843268737814
73.60000000000001                0.13943957920846756
73.7                             0.15361746752043312
73.8                             0.16839042556613956
73.9                             0.1836112483056722
74                               0.1991476702160899
74.1                             0.21488232408105618
74.2                             0.23071230454644512
74.3                             0.24654844367407813
74.4                             0.2623143912473726
74.5                             0.2779455769289417
74.6                             0.2933881160014232
74.7                             0.3085977062710326
74.8                             0.3235385513003288
74.9                             0.3381823346592131
75                               0.35250726132491805
75.1                             0.3664971755534682
75.2                             0.380140761614319
75.3                             0.39343082332583235
75.4                             0.40636363737731535
75.5                             0.4189383978763558
75.6                             0.4311567153705405
75.7                             0.4430221858086877
75.8                             0.45454001722538606
75.9                             0.4657167083159809
76                               0.47655977326008725
76.1                             0.4870775073812604
76.2                             0.49727878862708846
76.3                             0.5071729102967861
76.4                             0.5167694408985114
76.5                             0.5260781074623626
76.6                             0.5351086990468089
76.7                             0.543870987516161
76.8                             0.5523746629385617
76.90000000000002                0.5606292813362296
77                               0.5686442231341421
77.1                             0.5764286609680668
77.2                             0.5839915352637391
77.3                             0.5913415360336337
77.4                             0.5984870898089677
77.5                             0.6054363509302215
77.6                             0.6121971965007179
77.7                             0.6187772243620098
77.8                             0.6251837535298534
77.9                             0.6314238266162666
78                               0.6375042138378146
78.10000000000001                0.6434314182763935
78.2                             0.6492116821121293
78.3                             0.6548509935951164
78.4                             0.6603550945598783
78.5                             0.6657294883220896
78.6                             0.6709794478222972
78.7                             0.6761100239067579
78.8                             0.6811260536557584
78.9                             0.686032168684898
79                               0.6908328033619534
79.1                             0.695532202890831
79.2                             0.7001344312268725
79.3                             0.7046433787950067
79.4                             0.7090627699880105
79.5                             0.7133961704316795
79.6                             0.7176469940046052
79.7                             0.7218185096058862
79.8                             0.7259138476691933
79.9                             0.7299360064199546
80                               0.7338878578789361
80.1                             0.7377721536161005
80.2                             0.7415915302561129
80.3                             0.7453485147457647
80.4                             0.7490455293854063
80.5                             0.7526848966348549
80.6                             0.7562688436989978
80.7                             0.759799506902832
80.8                             0.7632789358618062
80.9                             0.7667090974577087
81                               0.7700918796263112
81.1                             0.773429094966417
81.2                             0.776722484176068
81.3                             0.7799737193253413
81.40000000000002                0.78318440697394
81.5                             0.7863560911367173
81.6                             0.7894902561096736
81.7                             0.7925883291590081
81.8                             0.7956516830820443
81.9                             0.7986816386450043
82                               0.801679466904522
82.1                             0.8046463914178535
82.2                             0.8075835903484561
82.30000000000001                0.8104921984707412
82.4                             0.8133733090801942
82.5                             0.8162279758126184
82.60000000000001                0.8190572143783674
82.7                             0.8218620042146396
82.80000000000001                0.8246432900603718
82.9                             0.8274019834579766
83                               0.8301389641852452
83.1                             0.8328550816215127
83.2                             0.8355511560501114
83.30000000000001                0.8382279799019716
83.4                             0.840886318942889
83.5                             0.843526913406269
83.6                             0.8461504790756094
83.7                             0.8487577083181904
83.80000000000001                0.8513492710729283
83.9                             0.8539258157938967
84                               0.8564879703531053
84.1                             0.8590363429018216
84.2                             0.8615715226951765
84.30000000000001                0.8640940808794007
84.4                             0.8666045712449224
84.5                             0.8691035309462364
84.6                             0.8715914811944558
84.7                             0.8740689279188941
84.80000000000001                0.8765363624046895
84.9                             0.8789942619072477
85                               0.8814430902401401
85.1                             0.8838832983429673
85.2                             0.88631532482534
85.30000000000001                0.8887395964872727
85.4                             0.8911565288218021
85.5                             0.8935665264959967
85.6                             0.8959699838115168
85.7                             0.8983672851521213
85.80000000000003                0.9007588054108374
85.90000000000002                0.9031449104043898
86                               0.9055259572717217
86.1                             0.9079022948603946
86.2                             0.9102742640983473
86.30000000000001                0.9126421983558168
86.4                             0.9150064237931131
86.5                             0.9173672597002092
86.6                             0.9197250188240236
86.7                             0.9220800076884731
86.80000000000001                0.9244325269012339
86.9                             0.9267828714576453
87                               0.9291313310316265
87.10000000000001                0.9314781902621823
87.2                             0.9338237290319777
87.30000000000001                0.9361682227382617
87.4                             0.9385119425604741
87.5                             0.9408551557184216
87.6                             0.9431981257295157
87.7                             0.9455411126582424
87.80000000000001                0.9478843733610429
87.9                             0.9502281617303235
88                               0.9525727289312341
88.1                             0.9549183236378921
88.2                             0.9572651922643298
88.30000000000001                0.9596135791953997
88.4                             0.9619637270137701
88.5                             0.9643158767258362
88.6                             0.966670267985442
88.7                             0.9690271393173132
88.80000000000001                0.9713867283388654
88.9                             0.9737492719816437
89                               0.9761150067131106
89.1                             0.9784841687572913
89.2                             0.9808569943170592
89.30000000000001                0.9832337197963228
89.4                             0.9856145820238276
89.5                             0.9879998184771218
89.6                             0.9903896675095212
89.7                             0.9927843685785886
89.80000000000001                0.9951841624761769
89.9                             0.9975892915621015
90                               0
